! Touchstone file exported from HFSS 2021.2.0
!        File:           C:/Users/andyw/Documents/Sync-Docs/Files/Education/EMIMEO/EM-Theory/Labs/Lab-4/EM-Theory-Lab-4.aedt
!        Generated:      11:48:47 am  Nov 09, 2021
!        Design:         WG-Loaded
!        Project:        EM-Theory-Lab-4
!        Setup:          2D_1
!        Solution:       LastAdaptive
!
!Data is not renormalized
# GHz S MA R 246.610900
! Terminal data exported
! Port[1] = Port1
! Port[2] = Port2
12                             0.678724871407187 -173.886937190205 0.73439263948742 96.0934702670524 0.734392639487419 96.0934702670524 0.678724871407187 -173.926122275691 
